

COORD
0  0  0 0  0  10000
10 0  0 10 0  10000
0  10 0 0  10 10000
10 10 0 10 10 10000
/

ZCORN
4*2003 8*2015 4*2032
/